#!/usr/bin/perl

# Persistent perl script to respond to pass-through smnp requests

# put the following in your snmpd.conf file to call this script:
#
# Unix systems and Cygwin:
# pass_persist .1.3.6.1.4.1.8072.2.255 /path/to/pass_persisttest
# Windows systems except Cygwin:
# pass_persist .1.3.6.1.4.1.8072.2.255 perl /path/to/pass_persisttest

# Forces a buffer flush after every print
$|=1;

use strict;

my $counter = 0;
my $place = ".1.3.6.1.4.1.8072.2.255";

while (<>){
  if (m!^PING!){
    print "PONG\n";
    next;
  }

  my $cmd = $_;
  my $req = <>;
  my $ret;
  chomp($cmd);
  chomp($req);

  if ( $cmd eq "getnext" ) {
    if ($req eq $place) {
      $ret = "$place.1.0";
    } elsif ($req eq "$place.1.0") {
      $ret = "$place.2.1.2.1";
    } elsif ($req eq "$place.2.1.2.1") {
      $ret = "$place.2.1.3.1";
    } elsif ($req eq "$place.2.1.3.1") {
      $ret = "$place.3.0";
    } elsif ($req eq "$place.3.0") {
      $ret = "$place.4.0";
    } elsif ($req eq "$place.4.0") {
      $ret = "$place.5.0";
    } elsif ($req eq "$place.5.0") {
      $ret = "$place.6.0";
    } else {
      print "NONE\n";
      next;
    }
  } else {
    if ($req eq $place) {
      print "NONE\n";
      next;
    } else {
      $ret = $req;
    }
  }

  print "$ret\n";

  if ($ret eq "$place.1.0") {
    print "string\nLife, the Universe, and Everything\n";
  } elsif ($ret eq "$place.2.1.2.1") {
    print "integer\n42\n";
  } elsif ($ret eq "$place.2.1.3.1") {
    print "objectid\n.1.3.6.1.4.42.42.42\n";
  } elsif ($ret eq "$place.3.0") {
    print "timeticks\n363136200\n";
  } elsif ($ret eq "$place.4.0") {
    print "ipaddress\n127.0.0.1\n";
  } elsif ($ret eq "$place.5.0") {
    $counter++;
    print "counter\n$counter\n";
  } elsif ($ret eq "$place.6.0") {
    print "gauge\n42\n";
  } else {
    print  "string\nack... $ret $req\n";
  }
}
